3
Properties=species:S:1:pos:R:3:dipole:R:1 energy=-2064.19620594291 pbc="F F F"
H        0.00920363       0.90754666      -0.00474462       0.35827678
H        0.90072599      -0.01186521      -0.00190283       0.35127471
O        0.00245038      -0.00410023      -0.00892485       0.00440487