3
Properties=species:S:1:pos:R:3:dipole:R:1 energy=-2064.19620594291 pbc="F F F"
H        0.00920363       0.90754666      -0.00474462       0.35827678
H        0.90072599      -0.01186521      -0.00190283       0.35127471
O        0.00245038      -0.00410023      -0.00892485       0.00440487
3
Properties=species:S:1:pos:R:3:dipole:R:1 energy=-2064.142951164721 pbc="F F F"
H        0.00689750       0.90905799       0.00364181       0.35690833
H        0.90085773      -0.02395902       0.00068353       0.34747522
O        0.01441042       0.00347182      -0.01940290       0.01728028
3
Properties=species:S:1:pos:R:3:dipole:R:1 energy=-2064.153713786597 pbc="F F F"
H       -0.00508099       0.91395020      -0.00274220       0.35838315
H        0.89140680      -0.03295069      -0.00595642       0.34214852
O        0.00363858       0.01520658      -0.02334922       0.01538530
3
Properties=species:S:1:pos:R:3:dipole:R:1 energy=-2064.226640301088 pbc="F F F"
H        0.00450292       0.90659150       0.00685641       0.36416917
H        0.90292715      -0.04489986      -0.00294099       0.33653289
O       -0.00850080       0.01816533      -0.01742999       0.01558374
3
Properties=species:S:1:pos:R:3:dipole:R:1 energy=-2064.2280632795673 pbc="F F F"
H        0.00818650       0.89807016       0.00149104       0.36719977
H        0.89803917      -0.05441888      -0.00059992       0.33478608
O       -0.01698546       0.01007897      -0.02757868       0.02230905
3
Properties=species:S:1:pos:R:3:dipole:R:1 energy=-2064.2881898988403 pbc="F F F"
H        0.00666721       0.90814125       0.00339759       0.37100667
H        0.89551976      -0.06094332      -0.01103288       0.32902281
O       -0.02930787       0.02074100      -0.02094565       0.01370939
3
Properties=species:S:1:pos:R:3:dipole:R:1 energy=-2064.16006829711 pbc="F F F"
H        0.00540465       0.90128439      -0.00432848       0.37215869
H        0.89176891      -0.06979385      -0.01599231       0.32504604
O       -0.02535864       0.02996264      -0.01789275       0.00641310
3
Properties=species:S:1:pos:R:3:dipole:R:1 energy=-2064.1922120164886 pbc="F F F"
H       -0.00694510       0.89516736      -0.01149841       0.36656952
H        0.89672668      -0.07118054      -0.02446672       0.32901170
O       -0.02035838       0.02120702      -0.00761999      -0.00825252
3
Properties=species:S:1:pos:R:3:dipole:R:1 energy=-2064.182749930453 pbc="F F F"
H        0.00371515       0.88891351      -0.00460112       0.36980332
H        0.89086819      -0.06424292      -0.01657921       0.33239155
O       -0.02748310       0.00935930      -0.00768391      -0.00219238
3
Properties=species:S:1:pos:R:3:dipole:R:1 energy=-2064.2272473790285 pbc="F F F"
H        0.00216425       0.89091940      -0.00075075       0.37128026
H        0.90257119      -0.07598352      -0.01223994       0.32661982
O       -0.03320890       0.01901981      -0.01891819       0.01010464
3
Properties=species:S:1:pos:R:3:dipole:R:1 energy=-2064.312489700955 pbc="F F F"
H       -0.00027861       0.88576611      -0.00075526       0.36944719
H        0.90909101      -0.08795728      -0.01842617       0.32688546
O       -0.03152407       0.00666105      -0.02495696       0.01246212
3
Properties=species:S:1:pos:R:3:dipole:R:1 energy=-2064.2003053179424 pbc="F F F"
H       -0.00783346       0.87887938      -0.00708960       0.36832639
H        0.90490992      -0.09405056      -0.01080968       0.32484813
O       -0.02727389       0.01298980      -0.02467069       0.01278968
3
Properties=species:S:1:pos:R:3:dipole:R:1 energy=-2064.3113233619833 pbc="F F F"
H       -0.00702016       0.87811639      -0.01708838       0.36825019
H        0.91470959      -0.09009820      -0.01355400       0.32818512
O       -0.03913148       0.00286560      -0.02562314       0.00802868
3
Properties=species:S:1:pos:R:3:dipole:R:1 energy=-2064.1094561215177 pbc="F F F"
H        0.00290671       0.86662105      -0.00812052       0.37420872
H        0.90531499      -0.09507701      -0.01148170       0.32323732
O       -0.04348469       0.01178937      -0.03577574       0.02082577
3
Properties=species:S:1:pos:R:3:dipole:R:1 energy=-2064.2463489158113 pbc="F F F"
H       -0.00073323       0.87456031       0.00290133       0.36969590
H        0.91628132      -0.09249824      -0.02124623       0.32525877
O       -0.03553882       0.00820669      -0.04813935       0.03140984
3
Properties=species:S:1:pos:R:3:dipole:R:1 energy=-2064.314146729137 pbc="F F F"
H       -0.01010018       0.87226835      -0.00490600       0.36570855
H        0.92205789      -0.08632807      -0.01980929       0.33041719
O       -0.04046352      -0.00120032      -0.05139390       0.03083569
3
Properties=species:S:1:pos:R:3:dipole:R:1 energy=-2064.349327099194 pbc="F F F"
H        0.00203280       0.87556009      -0.01077454       0.36848303
H        0.92992125      -0.09659580      -0.00915530       0.32588108
O       -0.04076726       0.00042657      -0.06036148       0.03895908
3
Properties=species:S:1:pos:R:3:dipole:R:1 energy=-2064.3035331771653 pbc="F F F"
H        0.00094962       0.87496257      -0.00658641       0.36866189
H        0.94206278      -0.10029650       0.00315153       0.32337543
O       -0.04815015       0.00843328      -0.05667028       0.04193412
3
Properties=species:S:1:pos:R:3:dipole:R:1 energy=-2064.410699940408 pbc="F F F"
H        0.00759917       0.87883068       0.00362067       0.37042034
H        0.93282852      -0.10359375      -0.00015288       0.32365060
O       -0.04553626      -0.00287470      -0.04848416       0.03847647
3
Properties=species:S:1:pos:R:3:dipole:R:1 energy=-2064.3283970271214 pbc="F F F"
H        0.00361942       0.87706567       0.01381440       0.37281805
H        0.92391443      -0.10784360      -0.00979862       0.31987704
O       -0.04893363       0.00712661      -0.04462796       0.03684185
3
Properties=species:S:1:pos:R:3:dipole:R:1 energy=-2064.241935369436 pbc="F F F"
H       -0.00068718       0.86927069       0.02024656       0.37312391
H        0.91870714      -0.11781536      -0.01817502       0.31742907
O       -0.04282498       0.00936887      -0.03474686       0.02942860
3
Properties=species:S:1:pos:R:3:dipole:R:1 energy=-2064.0738252127057 pbc="F F F"
H        0.00083593       0.86408145       0.01538056       0.37412088
H        0.90944366      -0.12073267      -0.02016138       0.31466994
O       -0.03188560       0.01766076      -0.03180524       0.02494383
3
Properties=species:S:1:pos:R:3:dipole:R:1 energy=-2064.2094422437513 pbc="F F F"
H       -0.00002586       0.86741962       0.01963612       0.37453046
H        0.90022862      -0.12184940      -0.02797593       0.31676124
O       -0.03801029       0.00536777      -0.03044042       0.02216512
3
Properties=species:S:1:pos:R:3:dipole:R:1 energy=-2063.987775451267 pbc="F F F"
H       -0.00854983       0.86103062       0.01847848       0.37133159
H        0.88895139      -0.10956997      -0.02462579       0.31970030
O       -0.02760149       0.01323959      -0.02497817       0.01902075
3
Properties=species:S:1:pos:R:3:dipole:R:1 energy=-2063.8911246835582 pbc="F F F"
H       -0.01423931       0.86342499       0.02981977       0.37279899
H        0.88106093      -0.10286765      -0.02377666       0.31804503
O       -0.03616235       0.02485713      -0.01902100       0.01958644
3
Properties=species:S:1:pos:R:3:dipole:R:1 energy=-2064.040959977739 pbc="F F F"
H       -0.00776196       0.87101678       0.03921186       0.37318529
H        0.88649153      -0.10359056      -0.02475412       0.31848530
O       -0.03463550       0.02023077      -0.01471522       0.01932714
3
Properties=species:S:1:pos:R:3:dipole:R:1 energy=-2064.1647311185297 pbc="F F F"
H       -0.00329072       0.87126800       0.04701681       0.37169090
H        0.89444260      -0.10459252      -0.03395196       0.32050412
O       -0.02992609       0.00945668      -0.02718963       0.02878936
3
Properties=species:S:1:pos:R:3:dipole:R:1 energy=-2064.175432629374 pbc="F F F"
H       -0.00651555       0.88000061       0.03656995       0.37055370
H        0.88291040      -0.09379406      -0.02695722       0.32433747
O       -0.02980905       0.00788126      -0.01898751       0.02007169
3
Properties=species:S:1:pos:R:3:dipole:R:1 energy=-2064.3428182172634 pbc="F F F"
H       -0.00839646       0.89236521       0.03143458       0.37099027
H        0.88541166      -0.10216212      -0.03569926       0.32162703
O       -0.03546265       0.00539573      -0.02731178       0.02080831
3
Properties=species:S:1:pos:R:3:dipole:R:1 energy=-2064.368217809314 pbc="F F F"
H       -0.00085927       0.89873520       0.04015683       0.37453523
H        0.87927812      -0.10835875      -0.03117286       0.31729836
O       -0.03832489       0.00738732      -0.02875194       0.02708541
3
Properties=species:S:1:pos:R:3:dipole:R:1 energy=-2064.4254360210903 pbc="F F F"
H       -0.01181393       0.89284661       0.03100532       0.37257251
H        0.89119661      -0.11886148      -0.02966048       0.31592567
O       -0.04613129       0.00656575      -0.03632443       0.03019326
3
Properties=species:S:1:pos:R:3:dipole:R:1 energy=-2064.3459583981494 pbc="F F F"
H        0.00041332       0.88630716       0.02919495       0.37469027
H        0.90027494      -0.12932476      -0.03034113       0.31203940
O       -0.03531748       0.01177585      -0.02778228       0.02288056
3
Properties=species:S:1:pos:R:3:dipole:R:1 energy=-2064.4316776596715 pbc="F F F"
H        0.00694996       0.89686575       0.02125593       0.37408648
H        0.90867346      -0.12567088      -0.02555305       0.31336710
O       -0.02998136       0.01082710      -0.01754347       0.01294526
3
Properties=species:S:1:pos:R:3:dipole:R:1 energy=-2064.4535529391833 pbc="F F F"
H        0.01112991       0.90567461       0.01017095       0.37466223
H        0.89999128      -0.11447593      -0.02827375       0.31613311
O       -0.02934289       0.00814494      -0.01872479       0.00801862
3
Properties=species:S:1:pos:R:3:dipole:R:1 energy=-2064.519807290176 pbc="F F F"
H        0.00418946       0.91270524       0.00579735       0.37280323
H        0.89197154      -0.11769498      -0.02488886       0.31744230
O       -0.03035065      -0.00136000      -0.00770902      -0.00132876
3
Properties=species:S:1:pos:R:3:dipole:R:1 energy=-2064.4827068481495 pbc="F F F"
H        0.01153803       0.90979675       0.00161880       0.37267199
H        0.88865530      -0.11724184      -0.02905440       0.31956165
O       -0.02188616      -0.01084217      -0.00471104      -0.00712643
3
Properties=species:S:1:pos:R:3:dipole:R:1 energy=-2064.4205387470756 pbc="F F F"
H        0.00994722       0.90648212      -0.00937972       0.37522157
H        0.87853915      -0.10905494      -0.03142823       0.31976274
O       -0.03276192      -0.00485570      -0.01000112      -0.00817896
3
Properties=species:S:1:pos:R:3:dipole:R:1 energy=-2064.5104848561573 pbc="F F F"
H       -0.00169052       0.90780304      -0.00686702       0.37226929
H        0.88095784      -0.10929327      -0.03356820       0.32247265
O       -0.03971221      -0.01427074      -0.01295950      -0.00562674
3
Properties=species:S:1:pos:R:3:dipole:R:1 energy=-2064.5693614762768 pbc="F F F"
H        0.00029767       0.91959329       0.00548298       0.37110087
H        0.88293799      -0.11678263      -0.03741836       0.32080416
O       -0.03189001      -0.01908157      -0.01351837      -0.00210348
3
Properties=species:S:1:pos:R:3:dipole:R:1 energy=-2064.4963320733855 pbc="F F F"
H       -0.00921289       0.92979287       0.01447905       0.36735641
H        0.87289107      -0.11197659      -0.04150666       0.32168894
O       -0.02159473      -0.01157051      -0.00898174      -0.00415298
3
Properties=species:S:1:pos:R:3:dipole:R:1 energy=-2064.5289913226497 pbc="F F F"
H       -0.01078559       0.93797801       0.01172284       0.36750881
H        0.87483208      -0.10462233      -0.03765798       0.32132116
O       -0.02531119      -0.00306534      -0.00162969      -0.00934739
3
Properties=species:S:1:pos:R:3:dipole:R:1 energy=-2064.4230084125793 pbc="F F F"
H       -0.01908925       0.92645540       0.00448831       0.36354527
H        0.87239816      -0.09391923      -0.02940771       0.32693944
O       -0.01875920      -0.00361669      -0.00162962      -0.00894309
3
Properties=species:S:1:pos:R:3:dipole:R:1 energy=-2064.477788837426 pbc="F F F"
H       -0.02277292       0.92925198       0.00711930       0.36341880
H        0.87246943      -0.08845077      -0.02822477       0.32886829
O       -0.02639539      -0.00813586      -0.00308537      -0.00619296
3
Properties=species:S:1:pos:R:3:dipole:R:1 energy=-2064.4605037622673 pbc="F F F"
H       -0.03313763       0.92372595       0.01358648       0.36280813
H        0.86526377      -0.09949311      -0.03345336       0.32640444
O       -0.03014678      -0.00657127      -0.01402173       0.00290889
3
Properties=species:S:1:pos:R:3:dipole:R:1 energy=-2064.4323852636558 pbc="F F F"
H       -0.02831114       0.93522107       0.01904428       0.36673092
H        0.85431902      -0.09447043      -0.02101588       0.32292457
O       -0.03678416       0.00451239      -0.02180308       0.01626532
3
Properties=species:S:1:pos:R:3:dipole:R:1 energy=-2064.502893243518 pbc="F F F"
H       -0.03910642       0.94368343       0.01272331       0.36397708
H        0.85969367      -0.10115349      -0.01578037       0.32036494
O       -0.03585845       0.01225194      -0.01696949       0.01217213
3
Properties=species:S:1:pos:R:3:dipole:R:1 energy=-2064.550928892779 pbc="F F F"
H       -0.04120103       0.94472847       0.01898650       0.36195192
H        0.87004639      -0.10573102      -0.01021771       0.31954578
O       -0.03089163       0.01351173      -0.01279230       0.01360409
3
Properties=species:S:1:pos:R:3:dipole:R:1 energy=-2064.539169120928 pbc="F F F"
H       -0.03393958       0.94902635       0.02333892       0.36473539
H        0.86220501      -0.09769647      -0.00080807       0.32062794
O       -0.03676879       0.00918088      -0.02040526       0.02486286
3
Properties=species:S:1:pos:R:3:dipole:R:1 energy=-2064.6156684605794 pbc="F F F"
H       -0.02877011       0.96107125       0.02149356       0.36686639
H        0.86375093      -0.09796204       0.00683380       0.31937009
O       -0.04337671       0.00459437      -0.01546187       0.02279960
3
Properties=species:S:1:pos:R:3:dipole:R:1 energy=-2064.5612118588188 pbc="F F F"
H       -0.03134351       0.96291305       0.02701730       0.36357332
H        0.86703350      -0.08913836       0.01025760       0.32201597
O       -0.03105937       0.01178161      -0.00390301       0.01753111
3
Properties=species:S:1:pos:R:3:dipole:R:1 energy=-2064.602011075839 pbc="F F F"
H       -0.01896986       0.97159393       0.01600946       0.36435544
H        0.87681321      -0.09479720       0.01347440       0.32079940
O       -0.02273873       0.00428839      -0.00036604       0.01169217
3
Properties=species:S:1:pos:R:3:dipole:R:1 energy=-2064.636101472223 pbc="F F F"
H       -0.01403845       0.98237631       0.02431339       0.36462956
H        0.88054082      -0.10460121       0.01106329       0.31797094
O       -0.01933823      -0.00339621      -0.00597777       0.01789254
3
Properties=species:S:1:pos:R:3:dipole:R:1 energy=-2064.684945348956 pbc="F F F"
H       -0.02082325       0.98758903       0.01570107       0.36171062
H        0.88926180      -0.10861235       0.01310189       0.31775239
O       -0.01546158      -0.00233346       0.00595092       0.00642474
3
Properties=species:S:1:pos:R:3:dipole:R:1 energy=-2064.6675621095387 pbc="F F F"
H       -0.01597589       0.97790734       0.01120532       0.36233822
H        0.89041766      -0.09827397       0.00270712       0.32265046
O       -0.01844233      -0.01430881       0.00679288      -0.00004180
3
Properties=species:S:1:pos:R:3:dipole:R:1 energy=-2064.6954682839914 pbc="F F F"
H       -0.01749367       0.97149324      -0.00104735       0.36395644
H        0.89088839      -0.09736838       0.00350864       0.32114601
O       -0.02597113      -0.00266711      -0.00557020       0.00523727
3
Properties=species:S:1:pos:R:3:dipole:R:1 energy=-2064.6278141613966 pbc="F F F"
H       -0.02096373       0.95946738       0.00544847       0.36239907
H        0.88856128      -0.09735086       0.00207871       0.32232554
O       -0.01877742       0.00329069       0.00471832      -0.00078001
3
Properties=species:S:1:pos:R:3:dipole:R:1 energy=-2064.5843397314643 pbc="F F F"
H       -0.02144159       0.96772044       0.00944086       0.36365534
H        0.87822494      -0.09277664       0.00489832       0.32082480
O       -0.02063057       0.01238595       0.01344273      -0.00498220
3
Properties=species:S:1:pos:R:3:dipole:R:1 energy=-2064.5994238105077 pbc="F F F"
H       -0.01427406       0.96288334       0.01658463       0.36400989
H        0.88560031      -0.09341094      -0.00423851       0.32196412
O       -0.01737932       0.00579568       0.01453697      -0.00677029
3
Properties=species:S:1:pos:R:3:dipole:R:1 energy=-2064.70879128752 pbc="F F F"
H       -0.01657865       0.97144709       0.02703010       0.36502856
H        0.89237885      -0.09950285      -0.00437733       0.31875942
O       -0.02780270       0.00655165       0.02030479      -0.00716718
3
Properties=species:S:1:pos:R:3:dipole:R:1 energy=-2064.6644618717023 pbc="F F F"
H       -0.02554078       0.96507124       0.03165852       0.36096818
H        0.89186295      -0.10836890      -0.00295954       0.31888748
O       -0.01533914       0.00695478       0.01095636       0.00229557
3
Properties=species:S:1:pos:R:3:dipole:R:1 energy=-2064.6344751921724 pbc="F F F"
H       -0.02242241       0.96048534       0.02620995       0.36366857
H        0.88308331      -0.11707207      -0.01444128       0.31580608
O       -0.01915402       0.00819124       0.01389318      -0.00672055
3
Properties=species:S:1:pos:R:3:dipole:R:1 energy=-2064.657451572855 pbc="F F F"
H       -0.02897129       0.97168674       0.02045557       0.36061734
H        0.88528168      -0.12498793      -0.01682428       0.31338351
O       -0.01227478       0.01173315       0.01387274      -0.01002050
3
Properties=species:S:1:pos:R:3:dipole:R:1 energy=-2064.7068834744696 pbc="F F F"
H       -0.02360194       0.97733663       0.03103801       0.36273987
H        0.88730341      -0.12105964      -0.02416620       0.31325386
O       -0.01942160       0.00949533       0.02275489      -0.01572291
3
Properties=species:S:1:pos:R:3:dipole:R:1 energy=-2064.7612712326213 pbc="F F F"
H       -0.02162479       0.98261248       0.03802793       0.36503914
H        0.88742851      -0.12488982      -0.02045283       0.31223466
O       -0.03024533      -0.00075424       0.01684036      -0.00692375
3
Properties=species:S:1:pos:R:3:dipole:R:1 energy=-2064.764507232117 pbc="F F F"
H       -0.02530500       0.98170726       0.04366599       0.36211385
H        0.89368703      -0.12207938      -0.02306129       0.31462125
O       -0.02407112      -0.00325208       0.01733205      -0.00629086
3
Properties=species:S:1:pos:R:3:dipole:R:1 energy=-2064.7993225175383 pbc="F F F"
H       -0.01622818       0.98563361       0.04291758       0.36559954
H        0.89903649      -0.10975177      -0.01196849       0.31521552
O       -0.03546593      -0.00208207       0.01384978       0.00058368
3
Properties=species:S:1:pos:R:3:dipole:R:1 energy=-2064.7796463947607 pbc="F F F"
H       -0.01817425       0.99617176       0.04701508       0.36403317
H        0.89661154      -0.11212928      -0.00818362       0.31500014
O       -0.03003994      -0.01034241       0.00325481       0.01097196
3
Properties=species:S:1:pos:R:3:dipole:R:1 energy=-2064.768513606033 pbc="F F F"
H       -0.00619129       0.99835219       0.05261246       0.36483805
H        0.90383519      -0.10420471      -0.01684070       0.31648819
O       -0.02397847      -0.01222012       0.01034702       0.00421437
3
Properties=species:S:1:pos:R:3:dipole:R:1 energy=-2064.8352123604295 pbc="F F F"
H       -0.01714146       1.00529933       0.04813688       0.36236203
H        0.91411739      -0.10456404      -0.01861944       0.31646438
O       -0.03544966      -0.01773999       0.00305143       0.00725449
3
Properties=species:S:1:pos:R:3:dipole:R:1 energy=-2064.828387379257 pbc="F F F"
H       -0.00961468       1.00046600       0.06037755       0.36326693
H        0.91973779      -0.09465821      -0.01287897       0.31937856
O       -0.04244958      -0.02811832       0.01426715       0.00547010
3
Properties=species:S:1:pos:R:3:dipole:R:1 energy=-2064.8517814269594 pbc="F F F"
H       -0.00980570       0.99279178       0.04988547       0.36367757
H        0.92668367      -0.08388648      -0.01808321       0.32136614
O       -0.05448054      -0.01773867       0.01729547      -0.00144201
3
Properties=species:S:1:pos:R:3:dipole:R:1 energy=-2064.8412265682878 pbc="F F F"
H        0.00187504       0.98626131       0.04947333       0.36406598
H        0.93548667      -0.08051830      -0.01437383       0.32284678
O       -0.04377428      -0.01618636       0.02351226      -0.00452235
3
Properties=species:S:1:pos:R:3:dipole:R:1 energy=-2064.839440513101 pbc="F F F"
H       -0.00712834       0.98683416       0.04129490       0.36303303
H        0.92456745      -0.08532223      -0.02493715       0.32171540
O       -0.03873157      -0.00710205       0.03479878      -0.01953246
3
Properties=species:S:1:pos:R:3:dipole:R:1 energy=-2064.8195911182042 pbc="F F F"
H        0.00503740       0.99626976       0.04993117       0.36792686
H        0.91618636      -0.07609483      -0.02581390       0.31955054
O       -0.05058792      -0.00274191       0.04341865      -0.02271282
3
Properties=species:S:1:pos:R:3:dipole:R:1 energy=-2064.8263718175 pbc="F F F"
H        0.00484275       1.00595717       0.04089587       0.36464490
H        0.92652392      -0.06675787      -0.03300057       0.32168101
O       -0.03894634       0.00026843       0.03670781      -0.02379975
3
Properties=species:S:1:pos:R:3:dipole:R:1 energy=-2064.8421380381255 pbc="F F F"
H        0.00874853       1.01398390       0.03971045       0.36470100
H        0.93697943      -0.05957379      -0.03135999       0.32094598
O       -0.04584146       0.00587279       0.04211837      -0.02669487
3
Properties=species:S:1:pos:R:3:dipole:R:1 energy=-2064.8137181585016 pbc="F F F"
H        0.00989588       1.00852047       0.04525789       0.36217788
H        0.93659353      -0.05049026      -0.03780039       0.32584404
O       -0.03854146      -0.00610523       0.04920459      -0.03218826
3
Properties=species:S:1:pos:R:3:dipole:R:1 energy=-2064.8166890579264 pbc="F F F"
H        0.00960499       1.02007598       0.04290796       0.36385378
H        0.93173651      -0.05188865      -0.02850679       0.32292246
O       -0.03734650       0.00228605       0.04480259      -0.02696740
3
Properties=species:S:1:pos:R:3:dipole:R:1 energy=-2064.8073747426424 pbc="F F F"
H       -0.00069853       1.02601645       0.04914941       0.36202018
H        0.92137818      -0.06284377      -0.03783379       0.32111426
O       -0.02522606       0.00647622       0.03650200      -0.02346901
3
Properties=species:S:1:pos:R:3:dipole:R:1 energy=-2064.824570274436 pbc="F F F"
H       -0.01008734       1.02326305       0.05224955       0.35851756
H        0.92799947      -0.05828483      -0.03804759       0.32454597
O       -0.03207215      -0.00542429       0.04211414      -0.02593286
3
Properties=species:S:1:pos:R:3:dipole:R:1 energy=-2064.8076063657154 pbc="F F F"
H       -0.01447189       1.01331158       0.04397800       0.35659188
H        0.92584507      -0.04976573      -0.03619538       0.32902546
O       -0.03405183      -0.01223209       0.04857321      -0.03244862
3
Properties=species:S:1:pos:R:3:dipole:R:1 energy=-2064.7847383250987 pbc="F F F"
H       -0.00949624       1.02145723       0.04491792       0.35859641
H        0.92147456      -0.06130935      -0.02471091       0.32504710
O       -0.02217317      -0.00774692       0.04197505      -0.02405375
3
Properties=species:S:1:pos:R:3:dipole:R:1 energy=-2064.791270982052 pbc="F F F"
H       -0.00969905       1.02951142       0.05419423       0.36013208
H        0.91832168      -0.05847646      -0.03524985       0.32350931
O       -0.03263931      -0.00765511       0.03526987      -0.01989812
3
Properties=species:S:1:pos:R:3:dipole:R:1 energy=-2064.726833628095 pbc="F F F"
H       -0.00432067       1.03577784       0.05371081       0.36061839
H        0.91619072      -0.05336231      -0.02533889       0.32462376
O       -0.02596776      -0.01704368       0.02466543      -0.00943840
3
Properties=species:S:1:pos:R:3:dipole:R:1 energy=-2064.6862049648857 pbc="F F F"
H        0.00094674       1.02919636       0.05349797       0.36090203
H        0.91447467      -0.04798673      -0.02035880       0.32737601
O       -0.02354315      -0.02553933       0.02908512      -0.01083967
3
Properties=species:S:1:pos:R:3:dipole:R:1 energy=-2064.666186910798 pbc="F F F"
H       -0.00326071       1.02518290       0.06557695       0.35808522
H        0.91395314      -0.05551492      -0.02987533       0.32835975
O       -0.01266984      -0.02954973       0.03866125      -0.01762901
3
Properties=species:S:1:pos:R:3:dipole:R:1 energy=-2064.6885730192917 pbc="F F F"
H       -0.00526017       1.02512657       0.06061403       0.35655431
H        0.91888668      -0.06688452      -0.04204789       0.32659547
O       -0.01508141      -0.04120013       0.04797428      -0.03008214
3
Properties=species:S:1:pos:R:3:dipole:R:1 energy=-2064.661601035586 pbc="F F F"
H       -0.00378592       1.02061575       0.06041990       0.35434976
H        0.91794376      -0.06616994      -0.04936610       0.32847987
O       -0.00542076      -0.04271411       0.06017347      -0.04189708
3
Properties=species:S:1:pos:R:3:dipole:R:1 energy=-2064.705706713809 pbc="F F F"
H        0.00107645       1.02773201       0.05704010       0.35684959
H        0.92648585      -0.06348754      -0.04346738       0.32604513
O       -0.01731168      -0.04231880       0.05452510      -0.03567025
3
Properties=species:S:1:pos:R:3:dipole:R:1 energy=-2064.7111716238937 pbc="F F F"
H        0.00138893       1.03681459       0.06213545       0.35781481
H        0.92965988      -0.06418563      -0.03287032       0.32413533
O       -0.01492592      -0.03543409       0.04351746      -0.02270964
3
Properties=species:S:1:pos:R:3:dipole:R:1 energy=-2064.7273245380434 pbc="F F F"
H        0.00655750       1.03544729       0.05517672       0.35925470
H        0.92950029      -0.06167589      -0.03713423       0.32371516
O       -0.01359322      -0.02583423       0.03969727      -0.02382885
3
Properties=species:S:1:pos:R:3:dipole:R:1 energy=-2064.7133435501123 pbc="F F F"
H        0.01413701       1.02986066       0.05807312       0.36029560
H        0.93084090      -0.06356367      -0.03282198       0.32394853
O       -0.01188795      -0.03219370       0.04757345      -0.02670599
3
Properties=species:S:1:pos:R:3:dipole:R:1 energy=-2064.5923955604985 pbc="F F F"
H        0.02467493       1.02921116       0.05139732       0.36290391
H        0.91878333      -0.06194511      -0.02791246       0.32473647
O       -0.00307210      -0.04127373       0.04054580      -0.02293719
3
Properties=species:S:1:pos:R:3:dipole:R:1 energy=-2064.5882301203305 pbc="F F F"
H        0.01261025       1.03243187       0.04742311       0.35914040
H        0.91807066      -0.05089913      -0.02338666       0.32829784
O        0.00324155      -0.02975518       0.04001594      -0.02233763
3
Properties=species:S:1:pos:R:3:dipole:R:1 energy=-2064.4716663482795 pbc="F F F"
H        0.00302574       1.04077814       0.03785115       0.35607911
H        0.90675576      -0.05195135      -0.02819699       0.32898153
O        0.01443273      -0.02610071       0.03907929      -0.02751086
3
Properties=species:S:1:pos:R:3:dipole:R:1 energy=-2064.5809377042547 pbc="F F F"
H       -0.00436102       1.02943407       0.03050452       0.35420794
H        0.91729849      -0.04192747      -0.02074422       0.33330703
O        0.00374109      -0.03272799       0.03611016      -0.02398178
3
Properties=species:S:1:pos:R:3:dipole:R:1 energy=-2064.5698983159696 pbc="F F F"
H       -0.00585283       1.02294505       0.02566204       0.35585104
H        0.90828523      -0.04977181      -0.02378655       0.33211956
O       -0.00533828      -0.04147376       0.03986454      -0.02927779
3
Properties=species:S:1:pos:R:3:dipole:R:1 energy=-2064.538698696663 pbc="F F F"
H       -0.01614139       1.01074518       0.01633537       0.35534991
H        0.89636345      -0.05157377      -0.01202403       0.33452519
O       -0.00887091      -0.04194234       0.03372748      -0.02366745
3
Properties=species:S:1:pos:R:3:dipole:R:1 energy=-2064.538025568879 pbc="F F F"
H       -0.01886172       1.01321060       0.02402123       0.35316335
H        0.90339085      -0.05591081      -0.00788060       0.33486334
O       -0.00439135      -0.05215236       0.03646122      -0.02140151
3
Properties=species:S:1:pos:R:3:dipole:R:1 energy=-2064.6133026346774 pbc="F F F"
H       -0.01202677       1.01385787       0.02198739       0.35593200
H        0.90780082      -0.05762310      -0.01390054       0.33181052
O       -0.01387685      -0.04752847       0.04196140      -0.02785483
3
Properties=species:S:1:pos:R:3:dipole:R:1 energy=-2064.6920421956033 pbc="F F F"
H       -0.01317642       1.01468788       0.01031353       0.35661940
H        0.91407744      -0.06133969      -0.01551768       0.32913500
O       -0.02177754      -0.04027393       0.04282525      -0.03244968
3
Properties=species:S:1:pos:R:3:dipole:R:1 energy=-2064.640926715031 pbc="F F F"